

1527 atoms
1709 bonds
2665 angles
3862 dihedrals

1527 atom types
1709 bond types
2665 angle types
3862 dihedral types

0 72.298  xlo xhi
0 72.597  ylo yhi
0 76.589  zlo zhi

Masses
# masses in g/mol (amu) - uniform default value = 16.00
1 16.0
2 16.0
3 16.0
4 16.0
5 16.0
6 16.0
7 16.0
8 16.0
9 16.0
10 16.0
11 16.0
12 16.0
13 16.0
14 16.0
15 16.0
16 16.0
17 16.0
18 16.0
19 16.0
20 16.0
21 16.0
22 16.0
23 16.0
24 16.0
25 16.0
26 16.0
27 16.0
28 16.0
29 16.0
30 16.0
31 16.0
32 16.0
33 16.0
34 16.0
35 16.0
36 16.0
37 16.0
38 16.0
39 16.0
40 16.0
41 16.0
42 16.0
43 16.0
44 16.0
45 16.0
46 16.0
47 16.0
48 16.0
49 16.0
50 16.0
51 16.0
52 16.0
53 16.0
54 16.0
55 16.0
56 16.0
57 16.0
58 16.0
59 16.0
60 16.0
61 16.0
62 16.0
63 16.0
64 16.0
65 16.0
66 16.0
67 16.0
68 16.0
69 16.0
70 16.0
71 16.0
72 16.0
73 16.0
74 16.0
75 16.0
76 16.0
77 16.0
78 16.0
79 16.0
80 16.0
81 16.0
82 16.0
83 16.0
84 16.0
85 16.0
86 16.0
87 16.0
88 16.0
89 16.0
90 16.0
91 16.0
92 16.0
93 16.0
94 16.0
95 16.0
96 16.0
97 16.0
98 16.0
99 16.0
100 16.0
101 16.0
102 16.0
103 16.0
104 16.0
105 16.0
106 16.0
107 16.0
108 16.0
109 16.0
110 16.0
111 16.0
112 16.0
113 16.0
114 16.0
115 16.0
116 16.0
117 16.0
118 16.0
119 16.0
120 16.0
121 16.0
122 16.0
123 16.0
124 16.0
125 16.0
126 16.0
127 16.0
128 16.0
129 16.0
130 16.0
131 16.0
132 16.0
133 16.0
134 16.0
135 16.0
136 16.0
137 16.0
138 16.0
139 16.0
140 16.0
141 16.0
142 16.0
143 16.0
144 16.0
145 16.0
146 16.0
147 16.0
148 16.0
149 16.0
150 16.0
151 16.0
152 16.0
153 16.0
154 16.0
155 16.0
156 16.0
157 16.0
158 16.0
159 16.0
160 16.0
161 16.0
162 16.0
163 16.0
164 16.0
165 16.0
166 16.0
167 16.0
168 16.0
169 16.0
170 16.0
171 16.0
172 16.0
173 16.0
174 16.0
175 16.0
176 16.0
177 16.0
178 16.0
179 16.0
180 16.0
181 16.0
182 16.0
183 16.0
184 16.0
185 16.0
186 16.0
187 16.0
188 16.0
189 16.0
190 16.0
191 16.0
192 16.0
193 16.0
194 16.0
195 16.0
196 16.0
197 16.0
198 16.0
199 16.0
200 16.0
201 16.0
202 16.0
203 16.0
204 16.0
205 16.0
206 16.0
207 16.0
208 16.0
209 16.0
210 16.0
211 16.0
212 16.0
213 16.0
214 16.0
215 16.0
216 16.0
217 16.0
218 16.0
219 16.0
220 16.0
221 16.0
222 16.0
223 16.0
224 16.0
225 16.0
226 16.0
227 16.0
228 16.0
229 16.0
230 16.0
231 16.0
232 16.0
233 16.0
234 16.0
235 16.0
236 16.0
237 16.0
238 16.0
239 16.0
240 16.0
241 16.0
242 16.0
243 16.0
244 16.0
245 16.0
246 16.0
247 16.0
248 16.0
249 16.0
250 16.0
251 16.0
252 16.0
253 16.0
254 16.0
255 16.0
256 16.0
257 16.0
258 16.0
259 16.0
260 16.0
261 16.0
262 16.0
263 16.0
264 16.0
265 16.0
266 16.0
267 16.0
268 16.0
269 16.0
270 16.0
271 16.0
272 16.0
273 16.0
274 16.0
275 16.0
276 16.0
277 16.0
278 16.0
279 16.0
280 16.0
281 16.0
282 16.0
283 16.0
284 16.0
285 16.0
286 16.0
287 16.0
288 16.0
289 16.0
290 16.0
291 16.0
292 16.0
293 16.0
294 16.0
295 16.0
296 16.0
297 16.0
298 16.0
299 16.0
300 16.0
301 16.0
302 16.0
303 16.0
304 16.0
305 16.0
306 16.0
307 16.0
308 16.0
309 16.0
310 16.0
311 16.0
312 16.0
313 16.0
314 16.0
315 16.0
316 16.0
317 16.0
318 16.0
319 16.0
320 16.0
321 16.0
322 16.0
323 16.0
324 16.0
325 16.0
326 16.0
327 16.0
328 16.0
329 16.0
330 16.0
331 16.0
332 16.0
333 16.0
334 16.0
335 16.0
336 16.0
337 16.0
338 16.0
339 16.0
340 16.0
341 16.0
342 16.0
343 16.0
344 16.0
345 16.0
346 16.0
347 16.0
348 16.0
349 16.0
350 16.0
351 16.0
352 16.0
353 16.0
354 16.0
355 16.0
356 16.0
357 16.0
358 16.0
359 16.0
360 16.0
361 16.0
362 16.0
363 16.0
364 16.0
365 16.0
366 16.0
367 16.0
368 16.0
369 16.0
370 16.0
371 16.0
372 16.0
373 16.0
374 16.0
375 16.0
376 16.0
377 16.0
378 16.0
379 16.0
380 16.0
381 16.0
382 16.0
383 16.0
384 16.0
385 16.0
386 16.0
387 16.0
388 16.0
389 16.0
390 16.0
391 16.0
392 16.0
393 16.0
394 16.0
395 16.0
396 16.0
397 16.0
398 16.0
399 16.0
400 16.0
401 16.0
402 16.0
403 16.0
404 16.0
405 16.0
406 16.0
407 16.0
408 16.0
409 16.0
410 16.0
411 16.0
412 16.0
413 16.0
414 16.0
415 16.0
416 16.0
417 16.0
418 16.0
419 16.0
420 16.0
421 16.0
422 16.0
423 16.0
424 16.0
425 16.0
426 16.0
427 16.0
428 16.0
429 16.0
430 16.0
431 16.0
432 16.0
433 16.0
434 16.0
435 16.0
436 16.0
437 16.0
438 16.0
439 16.0
440 16.0
441 16.0
442 16.0
443 16.0
444 16.0
445 16.0
446 16.0
447 16.0
448 16.0
449 16.0
450 16.0
451 16.0
452 16.0
453 16.0
454 16.0
455 16.0
456 16.0
457 16.0
458 16.0
459 16.0
460 16.0
461 16.0
462 16.0
463 16.0
464 16.0
465 16.0
466 16.0
467 16.0
468 16.0
469 16.0
470 16.0
471 16.0
472 16.0
473 16.0
474 16.0
475 16.0
476 16.0
477 16.0
478 16.0
479 16.0
480 16.0
481 16.0
482 16.0
483 16.0
484 16.0
485 16.0
486 16.0
487 16.0
488 16.0
489 16.0
490 16.0
491 16.0
492 16.0
493 16.0
494 16.0
495 16.0
496 16.0
497 16.0
498 16.0
499 16.0
500 16.0
501 16.0
502 16.0
503 16.0
504 16.0
505 16.0
506 16.0
507 16.0
508 16.0
509 16.0
510 16.0
511 16.0
512 16.0
513 16.0
514 16.0
515 16.0
516 16.0
517 16.0
518 16.0
519 16.0
520 16.0
521 16.0
522 16.0
523 16.0
524 16.0
525 16.0
526 16.0
527 16.0
528 16.0
529 16.0
530 16.0
531 16.0
532 16.0
533 16.0
534 16.0
535 16.0
536 16.0
537 16.0
538 16.0
539 16.0
540 16.0
541 16.0
542 16.0
543 16.0
544 16.0
545 16.0
546 16.0
547 16.0
548 16.0
549 16.0
550 16.0
551 16.0
552 16.0
553 16.0
554 16.0
555 16.0
556 16.0
557 16.0
558 16.0
559 16.0
560 16.0
561 16.0
562 16.0
563 16.0
564 16.0
565 16.0
566 16.0
567 16.0
568 16.0
569 16.0
570 16.0
571 16.0
572 16.0
573 16.0
574 16.0
575 16.0
576 16.0
577 16.0
578 16.0
579 16.0
580 16.0
581 16.0
582 16.0
583 16.0
584 16.0
585 16.0
586 16.0
587 16.0
588 16.0
589 16.0
590 16.0
591 16.0
592 16.0
593 16.0
594 16.0
595 16.0
596 16.0
597 16.0
598 16.0
599 16.0
600 16.0
601 16.0
602 16.0
603 16.0
604 16.0
605 16.0
606 16.0
607 16.0
608 16.0
609 16.0
610 16.0
611 16.0
612 16.0
613 16.0
614 16.0
615 16.0
616 16.0
617 16.0
618 16.0
619 16.0
620 16.0
621 16.0
622 16.0
623 16.0
624 16.0
625 16.0
626 16.0
627 16.0
628 16.0
629 16.0
630 16.0
631 16.0
632 16.0
633 16.0
634 16.0
635 16.0
636 16.0
637 16.0
638 16.0
639 16.0
640 16.0
641 16.0
642 16.0
643 16.0
644 16.0
645 16.0
646 16.0
647 16.0
648 16.0
649 16.0
650 16.0
651 16.0
652 16.0
653 16.0
654 16.0
655 16.0
656 16.0
657 16.0
658 16.0
659 16.0
660 16.0
661 16.0
662 16.0
663 16.0
664 16.0
665 16.0
666 16.0
667 16.0
668 16.0
669 16.0
670 16.0
671 16.0
672 16.0
673 16.0
674 16.0
675 16.0
676 16.0
677 16.0
678 16.0
679 16.0
680 16.0
681 16.0
682 16.0
683 16.0
684 16.0
685 16.0
686 16.0
687 16.0
688 16.0
689 16.0
690 16.0
691 16.0
692 16.0
693 16.0
694 16.0
695 16.0
696 16.0
697 16.0
698 16.0
699 16.0
700 16.0
701 16.0
702 16.0
703 16.0
704 16.0
705 16.0
706 16.0
707 16.0
708 16.0
709 16.0
710 16.0
711 16.0
712 16.0
713 16.0
714 16.0
715 16.0
716 16.0
717 16.0
718 16.0
719 16.0
720 16.0
721 16.0
722 16.0
723 16.0
724 16.0
725 16.0
726 16.0
727 16.0
728 16.0
729 16.0
730 16.0
731 16.0
732 16.0
733 16.0
734 16.0
735 16.0
736 16.0
737 16.0
738 16.0
739 16.0
740 16.0
741 16.0
742 16.0
743 16.0
744 16.0
745 16.0
746 16.0
747 16.0
748 16.0
749 16.0
750 16.0
751 16.0
752 16.0
753 16.0
754 16.0
755 16.0
756 16.0
757 16.0
758 16.0
759 16.0
760 16.0
761 16.0
762 16.0
763 16.0
764 16.0
765 16.0
766 16.0
767 16.0
768 16.0
769 16.0
770 16.0
771 16.0
772 16.0
773 16.0
774 16.0
775 16.0
776 16.0
777 16.0
778 16.0
779 16.0
780 16.0
781 16.0
782 16.0
783 16.0
784 16.0
785 16.0
786 16.0
787 16.0
788 16.0
789 16.0
790 16.0
791 16.0
792 16.0
793 16.0
794 16.0
795 16.0
796 16.0
797 16.0
798 16.0
799 16.0
800 16.0
801 16.0
802 16.0
803 16.0
804 16.0
805 16.0
806 16.0
807 16.0
808 16.0
809 16.0
810 16.0
811 16.0
812 16.0
813 16.0
814 16.0
815 16.0
816 16.0
817 16.0
818 16.0
819 16.0
820 16.0
821 16.0
822 16.0
823 16.0
824 16.0
825 16.0
826 16.0
827 16.0
828 16.0
829 16.0
830 16.0
831 16.0
832 16.0
833 16.0
834 16.0
835 16.0
836 16.0
837 16.0
838 16.0
839 16.0
840 16.0
841 16.0
842 16.0
843 16.0
844 16.0
845 16.0
846 16.0
847 16.0
848 16.0
849 16.0
850 16.0
851 16.0
852 16.0
853 16.0
854 16.0
855 16.0
856 16.0
857 16.0
858 16.0
859 16.0
860 16.0
861 16.0
862 16.0
863 16.0
864 16.0
865 16.0
866 16.0
867 16.0
868 16.0
869 16.0
870 16.0
871 16.0
872 16.0
873 16.0
874 16.0
875 16.0
876 16.0
877 16.0
878 16.0
879 16.0
880 16.0
881 16.0
882 16.0
883 16.0
884 16.0
885 16.0
886 16.0
887 16.0
888 16.0
889 16.0
890 16.0
891 16.0
892 16.0
893 16.0
894 16.0
895 16.0
896 16.0
897 16.0
898 16.0
899 16.0
900 16.0
901 16.0
902 16.0
903 16.0
904 16.0
905 16.0
906 16.0
907 16.0
908 16.0
909 16.0
910 16.0
911 16.0
912 16.0
913 16.0
914 16.0
915 16.0
916 16.0
917 16.0
918 16.0
919 16.0
920 16.0
921 16.0
922 16.0
923 16.0
924 16.0
925 16.0
926 16.0
927 16.0
928 16.0
929 16.0
930 16.0
931 16.0
932 16.0
933 16.0
934 16.0
935 16.0
936 16.0
937 16.0
938 16.0
939 16.0
940 16.0
941 16.0
942 16.0
943 16.0
944 16.0
945 16.0
946 16.0
947 16.0
948 16.0
949 16.0
950 16.0
951 16.0
952 16.0
953 16.0
954 16.0
955 16.0
956 16.0
957 16.0
958 16.0
959 16.0
960 16.0
961 16.0
962 16.0
963 16.0
964 16.0
965 16.0
966 16.0
967 16.0
968 16.0
969 16.0
970 16.0
971 16.0
972 16.0
973 16.0
974 16.0
975 16.0
976 16.0
977 16.0
978 16.0
979 16.0
980 16.0
981 16.0
982 16.0
983 16.0
984 16.0
985 16.0
986 16.0
987 16.0
988 16.0
989 16.0
990 16.0
991 16.0
992 16.0
993 16.0
994 16.0
995 16.0
996 16.0
997 16.0
998 16.0
999 16.0
1000 16.0
1001 16.0
1002 16.0
1003 16.0
1004 16.0
1005 16.0
1006 16.0
1007 16.0
1008 16.0
1009 16.0
1010 16.0
1011 16.0
1012 16.0
1013 16.0
1014 16.0
1015 16.0
1016 16.0
1017 16.0
1018 16.0
1019 16.0
1020 16.0
1021 16.0
1022 16.0
1023 16.0
1024 16.0
1025 16.0
1026 16.0
1027 16.0
1028 16.0
1029 16.0
1030 16.0
1031 16.0
1032 16.0
1033 16.0
1034 16.0
1035 16.0
1036 16.0
1037 16.0
1038 16.0
1039 16.0
1040 16.0
1041 16.0
1042 16.0
1043 16.0
1044 16.0
1045 16.0
1046 16.0
1047 16.0
1048 16.0
1049 16.0
1050 16.0
1051 16.0
1052 16.0
1053 16.0
1054 16.0
1055 16.0
1056 16.0
1057 16.0
1058 16.0
1059 16.0
1060 16.0
1061 16.0
1062 16.0
1063 16.0
1064 16.0
1065 16.0
1066 16.0
1067 16.0
1068 16.0
1069 16.0
1070 16.0
1071 16.0
1072 16.0
1073 16.0
1074 16.0
1075 16.0
1076 16.0
1077 16.0
1078 16.0
1079 16.0
1080 16.0
1081 16.0
1082 16.0
1083 16.0
1084 16.0
1085 16.0
1086 16.0
1087 16.0
1088 16.0
1089 16.0
1090 16.0
1091 16.0
1092 16.0
1093 16.0
1094 16.0
1095 16.0
1096 16.0
1097 16.0
1098 16.0
1099 16.0
1100 16.0
1101 16.0
1102 16.0
1103 16.0
1104 16.0
1105 16.0
1106 16.0
1107 16.0
1108 16.0
1109 16.0
1110 16.0
1111 16.0
1112 16.0
1113 16.0
1114 16.0
1115 16.0
1116 16.0
1117 16.0
1118 16.0
1119 16.0
1120 16.0
1121 16.0
1122 16.0
1123 16.0
1124 16.0
1125 16.0
1126 16.0
1127 16.0
1128 16.0
1129 16.0
1130 16.0
1131 16.0
1132 16.0
1133 16.0
1134 16.0
1135 16.0
1136 16.0
1137 16.0
1138 16.0
1139 16.0
1140 16.0
1141 16.0
1142 16.0
1143 16.0
1144 16.0
1145 16.0
1146 16.0
1147 16.0
1148 16.0
1149 16.0
1150 16.0
1151 16.0
1152 16.0
1153 16.0
1154 16.0
1155 16.0
1156 16.0
1157 16.0
1158 16.0
1159 16.0
1160 16.0
1161 16.0
1162 16.0
1163 16.0
1164 16.0
1165 16.0
1166 16.0
1167 16.0
1168 16.0
1169 16.0
1170 16.0
1171 16.0
1172 16.0
1173 16.0
1174 16.0
1175 16.0
1176 16.0
1177 16.0
1178 16.0
1179 16.0
1180 16.0
1181 16.0
1182 16.0
1183 16.0
1184 16.0
1185 16.0
1186 16.0
1187 16.0
1188 16.0
1189 16.0
1190 16.0
1191 16.0
1192 16.0
1193 16.0
1194 16.0
1195 16.0
1196 16.0
1197 16.0
1198 16.0
1199 16.0
1200 16.0
1201 16.0
1202 16.0
1203 16.0
1204 16.0
1205 16.0
1206 16.0
1207 16.0
1208 16.0
1209 16.0
1210 16.0
1211 16.0
1212 16.0
1213 16.0
1214 16.0
1215 16.0
1216 16.0
1217 16.0
1218 16.0
1219 16.0
1220 16.0
1221 16.0
1222 16.0
1223 16.0
1224 16.0
1225 16.0
1226 16.0
1227 16.0
1228 16.0
1229 16.0
1230 16.0
1231 16.0
1232 16.0
1233 16.0
1234 16.0
1235 16.0
1236 16.0
1237 16.0
1238 16.0
1239 16.0
1240 16.0
1241 16.0
1242 16.0
1243 16.0
1244 16.0
1245 16.0
1246 16.0
1247 16.0
1248 16.0
1249 16.0
1250 16.0
1251 16.0
1252 16.0
1253 16.0
1254 16.0
1255 16.0
1256 16.0
1257 16.0
1258 16.0
1259 16.0
1260 16.0
1261 16.0
1262 16.0
1263 16.0
1264 16.0
1265 16.0
1266 16.0
1267 16.0
1268 16.0
1269 16.0
1270 16.0
1271 16.0
1272 16.0
1273 16.0
1274 16.0
1275 16.0
1276 16.0
1277 16.0
1278 16.0
1279 16.0
1280 16.0
1281 16.0
1282 16.0
1283 16.0
1284 16.0
1285 16.0
1286 16.0
1287 16.0
1288 16.0
1289 16.0
1290 16.0
1291 16.0
1292 16.0
1293 16.0
1294 16.0
1295 16.0
1296 16.0
1297 16.0
1298 16.0
1299 16.0
1300 16.0
1301 16.0
1302 16.0
1303 16.0
1304 16.0
1305 16.0
1306 16.0
1307 16.0
1308 16.0
1309 16.0
1310 16.0
1311 16.0
1312 16.0
1313 16.0
1314 16.0
1315 16.0
1316 16.0
1317 16.0
1318 16.0
1319 16.0
1320 16.0
1321 16.0
1322 16.0
1323 16.0
1324 16.0
1325 16.0
1326 16.0
1327 16.0
1328 16.0
1329 16.0
1330 16.0
1331 16.0
1332 16.0
1333 16.0
1334 16.0
1335 16.0
1336 16.0
1337 16.0
1338 16.0
1339 16.0
1340 16.0
1341 16.0
1342 16.0
1343 16.0
1344 16.0
1345 16.0
1346 16.0
1347 16.0
1348 16.0
1349 16.0
1350 16.0
1351 16.0
1352 16.0
1353 16.0
1354 16.0
1355 16.0
1356 16.0
1357 16.0
1358 16.0
1359 16.0
1360 16.0
1361 16.0
1362 16.0
1363 16.0
1364 16.0
1365 16.0
1366 16.0
1367 16.0
1368 16.0
1369 16.0
1370 16.0
1371 16.0
1372 16.0
1373 16.0
1374 16.0
1375 16.0
1376 16.0
1377 16.0
1378 16.0
1379 16.0
1380 16.0
1381 16.0
1382 16.0
1383 16.0
1384 16.0
1385 16.0
1386 16.0
1387 16.0
1388 16.0
1389 16.0
1390 16.0
1391 16.0
1392 16.0
1393 16.0
1394 16.0
1395 16.0
1396 16.0
1397 16.0
1398 16.0
1399 16.0
1400 16.0
1401 16.0
1402 16.0
1403 16.0
1404 16.0
1405 16.0
1406 16.0
1407 16.0
1408 16.0
1409 16.0
1410 16.0
1411 16.0
1412 16.0
1413 16.0
1414 16.0
1415 16.0
1416 16.0
1417 16.0
1418 16.0
1419 16.0
1420 16.0
1421 16.0
1422 16.0
1423 16.0
1424 16.0
1425 16.0
1426 16.0
1427 16.0
1428 16.0
1429 16.0
1430 16.0
1431 16.0
1432 16.0
1433 16.0
1434 16.0
1435 16.0
1436 16.0
1437 16.0
1438 16.0
1439 16.0
1440 16.0
1441 16.0
1442 16.0
1443 16.0
1444 16.0
1445 16.0
1446 16.0
1447 16.0
1448 16.0
1449 16.0
1450 16.0
1451 16.0
1452 16.0
1453 16.0
1454 16.0
1455 16.0
1456 16.0
1457 16.0
1458 16.0
1459 16.0
1460 16.0
1461 16.0
1462 16.0
1463 16.0
1464 16.0
1465 16.0
1466 16.0
1467 16.0
1468 16.0
1469 16.0
1470 16.0
1471 16.0
1472 16.0
1473 16.0
1474 16.0
1475 16.0
1476 16.0
1477 16.0
1478 16.0
1479 16.0
1480 16.0
1481 16.0
1482 16.0
1483 16.0
1484 16.0
1485 16.0
1486 16.0
1487 16.0
1488 16.0
1489 16.0
1490 16.0
1491 16.0
1492 16.0
1493 16.0
1494 16.0
1495 16.0
1496 16.0
1497 16.0
1498 16.0
1499 16.0
1500 16.0
1501 16.0
1502 16.0
1503 16.0
1504 16.0
1505 16.0
1506 16.0
1507 16.0
1508 16.0
1509 16.0
1510 16.0
1511 16.0
1512 16.0
1513 16.0
1514 16.0
1515 16.0
1516 16.0
1517 16.0
1518 16.0
1519 16.0
1520 16.0
1521 16.0
1522 16.0
1523 16.0
1524 16.0
1525 16.0
1526 16.0
1527 16.0

Atoms
#atom-ID molecule-ID atom-type q x y z
1 1 1 0 22.35 18.21 28.77
2 1 2 0 21.23 19.16 28.42
3 1 3 0 23.62 18.24 27.98
4 1 4 0 22.78 18.37 30.3
5 1 5 0 23.49 19.52 30.75
6 1 6 0 24.31 19.26 32
7 1 7 0 24.62 17.85 32.14
8 1 8 0 25.67 19.95 32.03
9 1 9 0 25.56 21.26 32.54
10 1 10 0 26.5 19.05 32.92
11 1 11 0 26.21 19.33 34.28
12 1 12 0 25.95 17.68 32.58
13 1 13 0 26.65 16.98 31.49
14 1 14 0 26.39 17.18 30.16
15 1 15 0 27.07 16.4 29.37
16 1 16 0 27.8 15.61 30.24
17 1 17 0 28.72 14.58 29.93
18 1 18 0 29.05 14.19 28.81
19 1 19 0 29.27 14.03 31.08
20 1 20 0 28.96 14.42 32.36
21 1 21 0 29.6 13.76 33.35
22 1 22 0 28.1 15.39 32.65
23 1 23 0 27.55 15.94 31.55
24 1 24 0 26.05 22.49 31.66
25 1 25 0 25.3 23.72 32.08
26 1 26 0 26.01 22.08 30.23
27 1 27 0 27.55 22.65 32.11
28 1 28 0 27.89 22.66 33.48
29 1 29 0 29.27 22.13 33.68
30 1 30 0 29.27 20.73 33.32
31 1 31 0 30.33 22.75 32.78
32 1 32 0 30.88 23.93 33.35
33 1 33 0 31.35 21.63 32.6
34 1 34 0 32.28 21.64 33.67
35 1 35 0 30.48 20.37 32.71
36 1 36 0 30.22 19.74 31.4
37 1 37 0 29.52 20.25 30.34
38 1 38 0 29.5 19.44 29.31
39 1 39 0 30.22 18.32 29.7
40 1 40 0 30.54 17.12 28.99
41 1 41 0 30.27 16.73 27.82
42 1 42 0 31.3 16.29 29.8
43 1 43 0 31.69 16.55 31.08
44 1 44 0 32.41 15.57 31.64
45 1 45 0 31.41 17.66 31.75
46 1 46 0 30.67 18.5 31
47 1 47 0 30.59 25.39 32.73
48 1 48 0 31.23 26.39 33.62
49 1 49 0 29.14 25.53 32.38
50 1 50 0 31.43 25.43 31.38
51 1 51 0 32.79 25.03 31.38
52 1 52 0 33.6 25.8 30.37
53 1 53 0 33.22 25.36 29.04
54 1 54 0 33.44 27.33 30.39
55 1 55 0 34.7 27.99 30.18
56 1 56 0 32.52 27.58 29.2
57 1 57 0 32.65 28.85 28.61
58 1 58 0 32.95 26.48 28.24
59 1 59 0 31.89 26.15 27.29
60 1 60 0 30.57 26.01 27.63
61 1 61 0 29.81 25.79 26.6
62 1 62 0 30.69 25.78 25.52
63 1 63 0 30.44 25.58 24.15
64 1 64 0 29.35 25.36 23.59
65 1 65 0 31.59 25.66 23.39
66 1 66 0 32.83 25.89 23.87
67 1 67 0 33.8 25.93 22.95
68 1 68 0 33.09 26.07 25.16
69 1 69 0 31.98 26.01 25.92
70 1 70 0 35.2 29.13 31.21
71 1 71 0 36.28 28.58 32.07
72 1 72 0 34.01 29.81 31.77
73 1 73 0 35.9 30.22 30.29
74 1 74 0 37.02 29.91 29.49
75 1 75 0 37.29 31.02 28.51
76 1 76 0 36.39 30.89 27.38
77 1 77 0 37.07 32.44 29.06
78 1 78 0 38.06 33.33 28.55
79 1 79 0 35.74 32.83 28.44
80 1 80 0 35.52 34.21 28.3
81 1 81 0 35.84 32.14 27.1
82 1 82 0 34.55 32.04 26.41
83 1 83 0 34.57 32.26 25.05
84 1 84 0 35.58 32.42 24.4
85 1 85 0 33.35 32.24 24.44
86 1 86 0 32.14 32.06 25.05
87 1 87 0 31.13 32.06 24.34
88 1 88 0 32.18 31.87 26.47
89 1 89 0 33.37 31.89 27.09
90 1 90 0 39.44 33.57 29.33
91 1 91 0 40.14 34.64 28.58
92 1 92 0 40.11 32.26 29.62
93 1 93 0 39 34.23 30.7
94 1 94 0 39.45 35.53 31.04
95 1 95 0 40.06 35.56 32.41
96 1 96 0 39.04 35.29 33.41
97 1 97 0 41.1 34.51 32.67
98 1 98 0 42.35 34.87 32.14
99 1 99 0 41.09 34.38 34.18
100 1 100 0 41.79 35.45 34.79
101 1 101 0 39.59 34.55 34.47
102 1 102 0 38.91 33.25 34.49
103 1 103 0 39.16 32.39 35.57
104 1 104 0 39.92 32.79 36.47
105 1 105 0 38.57 31.18 35.61
106 1 106 0 37.79 30.82 34.61
107 1 107 0 37.24 29.62 34.7
108 1 108 0 37.53 31.66 33.49
109 1 109 0 38.1 32.87 33.46
110 1 110 0 43.4 33.75 31.72
111 1 111 0 44.51 34.47 31.02
112 1 112 0 42.69 32.66 31.01
113 1 113 0 43.9 33.16 33.1
114 1 114 0 44.76 33.92 33.94
115 1 115 0 44.93 33.24 35.26
116 1 116 0 43.63 32.95 35.8
117 1 117 0 45.63 31.89 35.22
118 1 118 0 47.04 32 35.22
119 1 119 0 45.06 31.17 36.43
120 1 120 0 45.69 31.6 37.62
121 1 121 0 43.63 31.69 36.43
122 1 122 0 42.71 30.79 35.71
123 1 123 0 42.17 30.93 34.46
124 1 124 0 41.37 29.94 34.12
125 1 125 0 41.39 29.09 35.23
126 1 126 0 40.77 27.87 35.54
127 1 127 0 39.94 27.2 34.75
128 1 128 0 41.02 27.32 36.74
129 1 129 0 41.84 27.95 37.57
130 1 130 0 42.48 29.09 37.41
131 1 131 0 42.21 29.62 36.21
132 1 132 0 47.95 30.91 34.46
133 1 133 0 49.38 31.41 34.44
134 1 134 0 47.3 30.55 33.16
135 1 135 0 47.9 29.65 35.42
136 1 136 0 48.52 29.69 36.7
137 1 137 0 48.19 28.47 37.51
138 1 138 0 46.76 28.41 37.7
139 1 139 0 48.53 27.14 36.88
140 1 140 0 49.89 26.75 37
141 1 141 0 47.56 26.18 37.55
142 1 142 0 47.99 25.85 38.85
143 1 143 0 46.33 27.07 37.67
144 1 144 0 45.4 26.89 36.54
145 1 145 0 45.22 27.73 35.48
146 1 146 0 44.3 27.29 34.67
147 1 147 0 43.83 26.11 35.24
148 1 148 0 42.84 25.18 34.82
149 1 149 0 42.13 25.22 33.81
150 1 150 0 42.72 24.12 35.71
151 1 151 0 43.46 23.96 36.86
152 1 152 0 43.21 22.88 37.6
153 1 153 0 44.38 24.81 37.27
154 1 154 0 44.51 25.85 36.41
155 1 155 0 50.53 25.87 35.83
156 1 156 0 51.95 25.65 36.24
157 1 157 0 50.15 26.41 34.5
158 1 158 0 49.68 24.53 35.83
159 1 159 0 49.94 23.51 36.77
160 1 160 0 48.87 22.46 36.76
161 1 161 0 47.56 23.06 36.58
162 1 162 0 48.91 21.43 35.65
163 1 163 0 49.93 20.47 35.81
164 1 164 0 47.51 20.85 35.74
165 1 165 0 47.42 20.03 36.89
166 1 166 0 46.69 22.11 36.01
167 1 167 0 46.08 22.65 34.8
168 1 168 0 46.45 23.77 34.11
169 1 169 0 45.69 23.98 33.07
170 1 170 0 44.78 22.94 33.08
171 1 171 0 43.7 22.64 32.2
172 1 172 0 43.32 23.25 31.19
173 1 173 0 43.03 21.49 32.57
174 1 174 0 43.34 20.72 33.65
175 1 175 0 42.54 19.67 33.81
176 1 176 0 44.34 20.97 34.49
177 1 177 0 45.01 22.1 34.14
178 1 178 0 50.36 19.55 34.57
179 1 179 0 51.47 18.69 35.03
180 1 180 0 50.52 20.36 33.33
181 1 181 0 49.07 18.64 34.35
182 1 182 0 48.73 17.65 35.29
183 1 183 0 47.61 16.8 34.77
184 1 184 0 46.46 17.64 34.55
185 1 185 0 47.86 16.16 33.41
186 1 186 0 48.6 14.97 33.48
187 1 187 0 46.45 15.93 32.91
188 1 188 0 45.9 14.8 33.57
189 1 189 0 45.75 17.19 33.42
190 1 190 0 45.74 18.28 32.41
191 1 191 0 44.7 18.35 31.49
192 1 192 0 43.8 17.49 31.52
193 1 193 0 44.68 19.36 30.59
194 1 194 0 45.64 20.27 30.59
195 1 195 0 45.59 21.25 29.69
196 1 196 0 46.71 20.22 31.52
197 1 197 0 46.72 19.22 32.41
198 1 198 0 49.49 14.5 32.24
199 1 199 0 50.11 13.21 32.64
200 1 200 0 50.35 15.63 31.81
201 1 201 0 48.44 14.21 31.09
202 1 202 0 47.53 13.14 31.19
203 1 203 0 46.42 13.27 30.18
204 1 204 0 45.77 14.57 30.31
205 1 205 0 46.84 13.22 28.73
206 1 206 0 47.04 11.89 28.29
207 1 207 0 45.69 13.94 28.03
208 1 208 0 44.54 13.11 27.97
209 1 209 0 45.38 15.04 29.04
210 1 210 0 46.09 16.31 28.76
211 1 211 0 45.63 17.23 27.81
212 1 212 0 44.6 17.01 27.16
213 1 213 0 46.33 18.36 27.59
214 1 214 0 47.43 18.59 28.29
215 1 215 0 48.1 19.71 28.07
216 1 216 0 47.92 17.69 29.26
217 1 217 0 47.22 16.58 29.47
218 1 218 0 48.21 11.48 27.27
219 1 219 0 48.27 10 27.42
220 1 220 0 49.44 12.32 27.41
221 1 221 0 47.55 11.72 25.84
222 1 222 0 48.09 12.65 24.91
223 1 223 0 46.98 13.31 24.14
224 1 224 0 46.41 14.38 24.94
225 1 225 0 47.35 13.99 22.83
226 1 226 0 47.47 13.08 21.75
227 1 227 0 46.21 14.98 22.67
228 1 228 0 45.02 14.28 22.27
229 1 229 0 46.04 15.45 24.11
230 1 230 0 46.93 16.59 24.4
231 1 231 0 48.07 16.54 25.17
232 1 232 0 48.68 17.7 25.25
233 1 233 0 47.9 18.55 24.47
234 1 234 0 48.08 19.93 24.18
235 1 235 0 48.97 20.7 24.55
236 1 236 0 47.07 20.4 23.35
237 1 237 0 46.02 19.64 22.88
238 1 238 0 45.15 20.29 22.1
239 1 239 0 45.85 18.35 23.14
240 1 240 0 46.82 17.88 23.94
241 1 241 0 48.2 13.5 20.38
242 1 242 0 48.01 12.33 19.5
243 1 243 0 49.58 14.03 20.63
244 1 244 0 47.31 14.67 19.77
245 1 245 0 46.08 14.38 19.11
246 1 246 0 45.59 15.56 18.29
247 1 247 0 45.24 16.68 19.16
248 1 248 0 46.58 16.18 17.32
249 1 249 0 46.77 15.43 16.12
250 1 250 0 46 17.57 17.11
251 1 251 0 44.82 17.49 16.31
252 1 252 0 45.57 17.9 18.53
253 1 253 0 46.67 18.54 19.28
254 1 254 0 47.51 17.93 20.19
255 1 255 0 48.39 18.74 20.71
256 1 256 0 48.12 19.96 20.13
257 1 257 0 48.76 21.22 20.3
258 1 258 0 49.71 21.52 21.03
259 1 259 0 48.18 22.2 19.51
260 1 260 0 47.13 22 18.66
261 1 261 0 46.72 23.09 17.98
262 1 262 0 46.52 20.83 18.49
263 1 263 0 47.07 19.86 19.24
264 1 264 0 48.23 15.38 15.43
265 1 265 0 48.09 14.5 14.24
266 1 266 0 49.24 15.1 16.48
267 1 267 0 48.47 16.87 14.91
268 1 268 0 47.61 17.46 13.95
269 1 269 0 47.98 18.89 13.65
270 1 270 0 47.78 19.71 14.84
271 1 271 0 49.44 19.14 13.3
272 1 272 0 49.77 18.8 11.96
273 1 273 0 49.62 20.61 13.63
274 1 274 0 49.06 21.44 12.62
275 1 275 0 48.76 20.73 14.89
276 1 276 0 49.58 20.53 16.11
277 1 277 0 50.33 21.61 16.58
278 1 278 0 50.29 22.69 15.96
279 1 279 0 51.1 21.46 17.69
280 1 280 0 51.12 20.28 18.31
281 1 281 0 51.89 20.17 19.41
282 1 282 0 50.37 19.15 17.85
283 1 283 0 49.61 19.32 16.76
284 1 284 0 51.19 18.12 11.66
285 1 285 0 51.27 17.92 10.19
286 1 286 0 51.35 16.95 12.57
287 1 287 0 52.26 19.23 12.08
288 1 288 0 52.44 20.39 11.29
289 1 289 0 53.4 21.38 11.91
290 1 290 0 52.89 21.83 13.2
291 1 291 0 54.8 20.88 12.25
292 1 292 0 55.66 20.7 11.14
293 1 293 0 55.26 21.93 13.25
294 1 294 0 55.57 23.15 12.59
295 1 295 0 53.98 22.12 14.06
296 1 296 0 53.98 21.18 15.2
297 1 297 0 53.36 19.96 15.3
298 1 298 0 53.59 19.37 16.44
299 1 299 0 54.42 20.25 17.12
300 1 300 0 55.02 20.16 18.41
301 1 301 0 54.92 19.25 19.24
302 1 302 0 55.8 21.28 18.7
303 1 303 0 55.98 22.35 17.85
304 1 304 0 56.76 23.33 18.31
305 1 305 0 55.44 22.45 16.66
306 1 306 0 54.68 21.37 16.36
307 1 307 0 56.57 19.37 11.04
308 1 308 0 57.6 19.62 10
309 1 309 0 55.68 18.18 10.93
310 1 310 0 57.3 19.28 12.45
311 1 311 0 58.04 18.12 12.83
312 1 312 0 59.47 18.46 13.16
313 1 313 0 60.09 19.13 12.03
314 1 314 0 59.68 19.42 14.32
315 1 315 0 59.64 18.78 15.59
316 1 316 0 61.03 20.06 14
317 1 317 0 62.1 19.2 14.38
318 1 318 0 60.98 20.13 12.48
319 1 319 0 60.49 21.43 11.98
320 1 320 0 59.43 21.65 11.14
321 1 321 0 59.22 22.9 10.84
322 1 322 0 60.23 23.57 11.52
323 1 323 0 60.56 24.93 11.62
324 1 324 0 59.89 25.89 10.99
325 1 325 0 61.62 25.27 12.39
326 1 326 0 62.3 24.29 13.02
327 1 327 0 62.08 22.98 13.01
328 1 328 0 61.02 22.67 12.23
329 1 329 0 58.5 19.19 16.64
330 1 330 0 58.36 18.14 17.7
331 1 331 0 57.34 19.52 15.78
332 1 332 0 59.05 20.52 17.32
333 1 333 0 60.29 20.54 18.02
334 1 334 0 61.03 21.84 17.78
335 1 335 0 60.95 22.16 16.38
336 1 336 0 60.47 23.06 18.49
337 1 337 0 60.99 23.19 19.81
338 1 338 0 60.87 24.22 17.57
339 1 339 0 62.16 24.71 17.88
340 1 340 0 60.92 23.56 16.2
341 1 341 0 59.76 23.89 15.35
342 1 342 0 58.75 23.05 14.94
343 1 343 0 57.87 23.65 14.17
344 1 344 0 58.34 24.96 14.06
345 1 345 0 57.87 26.11 13.38
346 1 346 0 56.75 26.13 12.64
347 1 347 0 58.6 27.25 13.49
348 1 348 0 59.72 27.24 14.24
349 1 349 0 60.26 26.23 14.92
350 1 350 0 59.52 25.11 14.79
351 1 351 0 60.05 23.62 21.03
352 1 352 0 60.73 23.22 22.3
353 1 353 0 58.69 23.1 20.76
354 1 354 0 60.02 25.22 20.94
355 1 355 0 61.22 25.99 21.03
356 1 356 0 61.04 27.38 20.47
357 1 357 0 60.79 27.3 19.04
358 1 358 0 59.85 28.16 21.02
359 1 359 0 60.16 28.83 22.22
360 1 360 0 59.49 29.1 19.88
361 1 361 0 60.33 30.25 19.89
362 1 362 0 59.84 28.26 18.65
363 1 363 0 58.67 27.53 18.11
364 1 364 0 58.18 26.32 18.52
365 1 365 0 57.14 25.9 17.83
366 1 366 0 56.95 26.92 16.9
367 1 367 0 56 27.08 15.87
368 1 368 0 55.05 26.18 15.61
369 1 369 0 56.08 28.21 15.12
370 1 370 0 57.05 29.1 15.39
371 1 371 0 58 29.06 16.32
372 1 372 0 57.89 27.93 17.05
373 1 373 0 59.01 29.1 23.31
374 1 374 0 59.6 29.91 24.4
375 1 375 0 58.37 27.8 23.64
376 1 376 0 57.97 30.03 22.51
377 1 377 0 56.56 29.85 22.65
378 1 378 0 55.88 29.79 21.3
379 1 379 0 56.36 28.64 20.54
380 1 380 0 54.37 29.61 21.33
381 1 381 0 53.69 30.83 21.55
382 1 382 0 54.08 28.95 19.99
383 1 383 0 54.07 29.92 18.94
384 1 384 0 55.3 28.06 19.81
385 1 385 0 55.08 26.7 20.34
386 1 386 0 55.63 26.2 21.49
387 1 387 0 55.28 24.97 21.74
388 1 388 0 54.45 24.63 20.69
389 1 389 0 53.77 23.41 20.42
390 1 390 0 53.77 22.37 21.11
391 1 391 0 53.03 23.48 19.24
392 1 392 0 52.96 24.58 18.42
393 1 393 0 52.2 24.45 17.33
394 1 394 0 53.59 25.72 18.66
395 1 395 0 54.31 25.68 19.8
396 1 396 0 52.37 30.89 22.47
397 1 397 0 51.97 32.31 22.64
398 1 398 0 52.57 30.04 23.68
399 1 399 0 51.26 30.17 21.57
400 1 400 0 51.02 30.59 20.24
401 1 401 0 50.18 29.59 19.5
402 1 402 0 50.94 28.37 19.28
403 1 403 0 48.94 29.12 20.24
404 1 404 0 47.87 30.04 20.15
405 1 405 0 48.65 27.77 19.59
406 1 406 0 47.99 27.95 18.35
407 1 407 0 50.07 27.25 19.33
408 1 408 0 50.54 26.35 20.4
409 1 409 0 50.14 25.02 20.41
410 1 410 0 49.4 24.52 19.57
411 1 411 0 50.65 24.28 21.45
412 1 412 0 51.5 24.73 22.45
413 1 413 0 51.87 23.95 23.33
414 1 414 0 51.86 26.11 22.37
415 1 415 0 51.38 26.85 21.37
416 1 416 0 46.84 30.17 21.36
417 1 417 0 46.19 31.5 21.28
418 1 418 0 47.55 29.83 22.62
419 1 419 0 45.78 29.03 21.05
420 1 420 0 45.26 28.86 19.74
421 1 421 0 44.64 27.49 19.56
422 1 422 0 45.68 26.48 19.53
423 1 423 0 43.7 27.04 20.67
424 1 424 0 42.39 27.54 20.51
425 1 425 0 43.77 25.52 20.58
426 1 426 0 42.93 25.05 19.55
427 1 427 0 45.23 25.3 20.16
428 1 428 0 46.13 24.99 21.29
429 1 429 0 46.29 23.66 21.68
430 1 430 0 45.62 22.81 21.1
431 1 431 0 47.14 23.34 22.69
432 1 432 0 47.82 24.31 23.29
433 1 433 0 48.65 23.97 24.29
434 1 434 0 47.69 25.67 22.92
435 1 435 0 46.85 25.97 21.92
436 1 436 0 41.58 28.11 21.78
437 1 437 0 40.41 28.9 21.33
438 1 438 0 42.55 28.64 22.77
439 1 439 0 40.98 26.81 22.43
440 1 440 0 40.42 25.8 21.64
441 1 441 0 40.2 24.57 22.45
442 1 442 0 41.49 23.92 22.69
443 1 443 0 39.58 24.81 23.83
444 1 444 0 38.65 23.78 24.1
445 1 445 0 40.78 24.68 24.76
446 1 446 0 40.5 24.33 26.09
447 1 447 0 41.58 23.59 24.05
448 1 448 0 42.97 23.48 24.49
449 1 449 0 43.88 24.49 24.66
450 1 450 0 45.02 24.07 25.14
451 1 451 0 44.84 22.7 25.31
452 1 452 0 45.73 21.73 25.82
453 1 453 0 46.89 21.87 26.2
454 1 454 0 45.17 20.46 25.85
455 1 455 0 43.9 20.18 25.44
456 1 456 0 43.55 18.89 25.56
457 1 457 0 43.04 21.08 24.98
458 1 458 0 43.58 22.32 24.93
459 1 459 0 37.1 24.12 24.36
460 1 460 0 36.41 22.83 24.65
461 1 461 0 36.59 25.04 23.32
462 1 462 0 37.14 24.93 25.72
463 1 463 0 36.48 26.18 25.85
464 1 464 0 37.02 26.92 27.05
465 1 465 0 36.34 26.43 28.23
466 1 466 0 38.5 26.7 27.29
467 1 467 0 39.04 27.86 27.92
468 1 468 0 38.51 25.52 28.26
469 1 469 0 39.67 25.41 29.05
470 1 470 0 37.28 25.8 29.1
471 1 471 0 36.64 24.59 29.64
472 1 472 0 36.9 24.22 30.95
473 1 473 0 37.67 24.92 31.61
474 1 474 0 36.31 23.13 31.47
475 1 475 0 35.49 22.41 30.7
476 1 476 0 34.92 21.33 31.24
477 1 477 0 35.21 22.77 29.36
478 1 478 0 35.8 23.85 28.86
479 1 479 0 40.45 28.47 27.46
480 1 480 0 41.41 27.36 27.38
481 1 481 0 40.71 29.7 28.29
482 1 482 0 40.23 28.95 25.96
483 1 483 0 39.38 30.03 25.63
484 1 484 0 39.01 29.96 24.17
485 1 485 0 37.96 28.99 23.98
486 1 486 0 38.44 31.23 23.58
487 1 487 0 39.45 32.16 23.24
488 1 488 0 37.65 30.72 22.37
489 1 489 0 38.49 30.52 21.25
490 1 490 0 37.19 29.35 22.86
491 1 491 0 35.75 29.28 23.21
492 1 492 0 34.79 29.32 22.19
493 1 493 0 35.16 29.47 21.02
494 1 494 0 33.49 29.21 22.49
495 1 495 0 33.14 29.06 23.76
496 1 496 0 31.85 28.96 24.06
497 1 497 0 34.11 28.99 24.81
498 1 498 0 35.39 29.1 24.5
499 1 499 0 39.13 33.73 23.22
500 1 500 0 40.41 34.36 22.82
501 1 501 0 38.34 34.11 24.42
502 1 502 0 38.21 33.9 21.94
503 1 503 0 38.79 33.66 20.68
504 1 504 0 37.84 33.9 19.54
505 1 505 0 36.9 32.81 19.42
506 1 506 0 36.95 35.12 19.62
507 1 507 0 37.65 36.32 19.34
508 1 508 0 35.88 34.78 18.6
509 1 509 0 36.4 34.95 17.29
510 1 510 0 35.7 33.28 18.84
511 1 511 0 34.6 32.99 19.76
512 1 512 0 34.62 32.99 21.12
513 1 513 0 33.46 32.68 21.64
514 1 514 0 32.64 32.46 20.55
515 1 515 0 31.31 32.09 20.44
516 1 516 0 30.52 31.87 21.49
517 1 517 0 30.8 31.94 19.21
518 1 518 0 31.6 32.16 18.16
519 1 519 0 32.87 32.52 18.13
520 1 520 0 33.33 32.65 19.38
521 1 521 0 37.17 37.72 19.97
522 1 522 0 38.22 38.68 19.51
523 1 523 0 36.84 37.67 21.41
524 1 524 0 35.78 38.02 19.24
525 1 525 0 35.74 38.37 17.87
526 1 526 0 34.34 38.27 17.33
527 1 527 0 33.81 36.95 17.58
528 1 528 0 33.31 39.19 17.95
529 1 529 0 33.38 40.53 17.49
530 1 530 0 32 38.49 17.58
531 1 531 0 31.66 38.74 16.22